LAMMPS data /home/cgarcia/Programs/replicate_polymer_topology/forcefields/trappe-ua_PEToxvaerd.xml 05-iPP_final_residues_noH_replicate.top

3070      atoms
3060      bonds
4070      angles
4040      dihedrals
1020      impropers

3         atom types
2         bond types
4         angle types
2         dihedral types
3         improper types

  -32.53000    24.23800   xlo xhi
  -23.16000    33.60800   ylo yhi
   10.33000   207.28000   zlo zhi
    0.00000     0.00000     0.00000 xy xz yz

Masses

1            15.035   # CH3_sp3
2            13.019   # CH_sp3
3            14.027   # CH2_sp3

Atoms

1        1      1     0.0000    44.3500    64.0000    75.6400 #CH3_sp3 
2        1      2     0.0000    45.7000    63.7600    76.3600 #CH_sp3 
3        1      1     0.0000    46.4900    65.1000    76.3400 #CH3_sp3 
4        1      3     0.0000    46.5000    62.7300    75.4800 #CH2_sp3 
5        1      2     0.0000    46.2000    61.1500    75.7100 #CH_sp3 
6        1      1     0.0000    46.9900    60.7200    76.8700 #CH3_sp3 
7        1      3     0.0000    46.7500    60.2800    74.5000 #CH2_sp3 
8        1      2     0.0000    46.2900    60.4800    73.0700 #CH_sp3 
9        1      1     0.0000    44.7200    60.6900    72.8700 #CH3_sp3 
10       1      3     0.0000    46.8300    59.3500    72.1000 #CH2_sp3 
11       1      2     0.0000    48.4100    59.1600    72.1000 #CH_sp3 
12       1      1     0.0000    49.2100    60.5400    71.9900 #CH3_sp3 
13       1      3     0.0000    48.7300    57.8200    71.3400 #CH2_sp3 
14       1      2     0.0000    49.7000    56.9000    72.1400 #CH_sp3 
15       1      1     0.0000    50.9900    57.5500    72.5500 #CH3_sp3 
16       1      3     0.0000    49.9500    55.5200    71.3400 #CH2_sp3 
17       1      2     0.0000    48.7700    54.5000    71.3200 #CH_sp3 
18       1      1     0.0000    48.6500    54.0100    72.7400 #CH3_sp3 
19       1      3     0.0000    48.8300    53.1800    70.4800 #CH2_sp3 
20       1      2     0.0000    48.7900    53.2700    69.0000 #CH_sp3 
21       1      1     0.0000    48.1000    54.6000    68.5500 #CH3_sp3 
22       1      3     0.0000    48.0600    52.1100    68.4300 #CH2_sp3 
23       1      2     0.0000    48.6300    50.7800    68.7500 #CH_sp3 
24       1      1     0.0000    49.8200    50.4600    67.8400 #CH3_sp3 
25       1      3     0.0000    47.6700    49.5300    68.6600 #CH2_sp3 
26       1      2     0.0000    47.0700    49.1100    70.0100 #CH_sp3 
27       1      1     0.0000    48.1800    48.4400    70.8200 #CH3_sp3 
28       1      3     0.0000    45.7900    48.3000    69.7400 #CH2_sp3 
29       1      2     0.0000    44.8500    47.8300    70.9300 #CH_sp3 
30       1      1     0.0000    43.6700    47.1600    70.2500 #CH3_sp3 
31       1      3     0.0000    44.4600    49.0500    71.8500 #CH2_sp3 
32       1      2     0.0000    43.5500    48.8300    73.0600 #CH_sp3 
33       1      1     0.0000    42.1500    49.2300    72.8200 #CH3_sp3 
34       1      3     0.0000    43.9600    49.5600    74.3200 #CH2_sp3 
35       1      2     0.0000    43.4400    49.1900    75.7800 #CH_sp3 
36       1      1     0.0000    44.3000    50.0200    76.7400 #CH3_sp3 
37       1      3     0.0000    43.6400    47.7400    76.1900 #CH2_sp3 
38       1      2     0.0000    42.5400    46.6800    75.7200 #CH_sp3 
39       1      1     0.0000    41.1500    46.9000    76.2800 #CH3_sp3 
40       1      3     0.0000    42.9700    45.2000    75.9100 #CH2_sp3 
41       1      2     0.0000    42.3600    44.0900    74.9300 #CH_sp3 
42       1      1     0.0000    42.1500    42.6800    75.6000 #CH3_sp3 
43       1      3     0.0000    43.1700    43.8800    73.6000 #CH2_sp3 
44       1      2     0.0000    42.1900    43.4700    72.4900 #CH_sp3 
45       1      1     0.0000    43.0700    42.4400    71.6300 #CH3_sp3 
46       1      3     0.0000    41.4000    44.6700    71.8000 #CH2_sp3 
47       1      2     0.0000    40.3000    44.2200    70.7400 #CH_sp3 
48       1      1     0.0000    40.0800    45.4500    69.8200 #CH3_sp3 
49       1      3     0.0000    39.0700    43.7800    71.5300 #CH2_sp3 
50       1      2     0.0000    38.0300    42.6900    71.0500 #CH_sp3 
51       1      1     0.0000    37.8300    42.7200    69.6000 #CH3_sp3 
52       1      3     0.0000    36.7200    42.7400    71.8800 #CH2_sp3 
53       1      2     0.0000    36.8700    42.6600    73.3800 #CH_sp3 
54       1      1     0.0000    37.0800    41.2300    73.8300 #CH3_sp3 
55       1      3     0.0000    35.5900    43.2300    74.1000 #CH2_sp3 
56       1      2     0.0000    35.5700    44.8400    74.1300 #CH_sp3 
57       1      1     0.0000    36.8200    45.4000    74.8000 #CH3_sp3 
58       1      3     0.0000    34.2300    45.1200    74.8400 #CH2_sp3 
59       1      2     0.0000    33.8200    46.6500    74.8900 #CH_sp3 
60       1      1     0.0000    32.4000    46.8200    75.5300 #CH3_sp3 
61       1      3     0.0000    34.0300    47.3800    73.5700 #CH2_sp3 
62       1      2     0.0000    33.8500    48.8400    73.2900 #CH_sp3 
63       1      1     0.0000    33.2300    49.2000    71.9300 #CH3_sp3 
64       1      3     0.0000    35.1100    49.6700    73.6800 #CH2_sp3 
65       1      2     0.0000    34.7500    51.1200    74.0500 #CH_sp3 
66       1      1     0.0000    36.1300    51.7800    74.1800 #CH3_sp3 
67       1      3     0.0000    34.0700    51.4000    75.4400 #CH2_sp3 
68       1      2     0.0000    32.5600    51.2600    75.4300 #CH_sp3 
69       1      1     0.0000    31.9700    52.2800    74.4500 #CH3_sp3 
70       1      3     0.0000    31.9200    51.3500    76.8200 #CH2_sp3 
71       1      2     0.0000    30.3900    51.0300    76.8900 #CH_sp3 
72       1      1     0.0000    29.8900    51.1000    78.4500 #CH3_sp3 
73       1      3     0.0000    29.7700    49.8400    76.1700 #CH2_sp3 
74       1      2     0.0000    28.3300    49.4500    76.4900 #CH_sp3 
75       1      1     0.0000    28.0100    48.2000    75.7200 #CH3_sp3 
76       1      3     0.0000    27.1300    50.3800    76.2000 #CH2_sp3 
77       1      2     0.0000    26.3100    50.5600    77.4900 #CH_sp3 
78       1      1     0.0000    25.7100    49.1700    77.7500 #CH3_sp3 
79       1      3     0.0000    25.4100    51.7800    77.2100 #CH2_sp3 
80       1      2     0.0000    24.1700    51.9500    78.1300 #CH_sp3 
81       1      1     0.0000    23.1300    53.0300    77.8700 #CH3_sp3 
82       1      3     0.0000    24.6300    52.1500    79.6000 #CH2_sp3 
83       1      2     0.0000    23.5500    52.0500    80.8300 #CH_sp3 
84       1      1     0.0000    23.0300    53.5100    81.2100 #CH3_sp3 
85       1      3     0.0000    24.3000    51.4100    82.0800 #CH2_sp3 
86       1      2     0.0000    24.5600    49.9000    81.8800 #CH_sp3 
87       1      1     0.0000    23.1600    49.1700    81.7500 #CH3_sp3 
88       1      3     0.0000    25.5400    49.3600    82.9900 #CH2_sp3 
89       1      2     0.0000    25.9600    47.8300    82.9500 #CH_sp3 
90       1      1     0.0000    26.7700    47.3500    84.2200 #CH3_sp3 
91       1      3     0.0000    26.7100    47.2600    81.6600 #CH2_sp3 
92       1      2     0.0000    28.1900    47.6100    81.5200 #CH_sp3 
93       1      1     0.0000    28.2900    49.1000    81.3200 #CH3_sp3 
94       1      3     0.0000    28.8100    46.8200    80.3200 #CH2_sp3 
95       1      2     0.0000    28.5200    45.3200    80.2800 #CH_sp3 
96       1      1     0.0000    28.9200    44.5900    81.5600 #CH3_sp3 
97       1      3     0.0000    29.3800    44.7600    79.0700 #CH2_sp3 
98       1      2     0.0000    29.1200    43.3100    78.4200 #CH_sp3 
99       1      1     0.0000    29.2400    42.0300    79.3300 #CH3_sp3 
100      1      3     0.0000    29.9300    43.2700    77.1600 #CH2_sp3 
101      1      2     0.0000    29.7600    42.1900    76.0500 #CH_sp3 
102      1      1     0.0000    30.9100    41.9200    75.1600 #CH3_sp3 
103      1      3     0.0000    28.3900    42.0800    75.3000 #CH2_sp3 
104      1      2     0.0000    28.1700    42.5900    73.7900 #CH_sp3 
105      1      1     0.0000    28.4300    44.0800    73.7800 #CH3_sp3 
106      1      3     0.0000    26.6700    42.4000    73.2700 #CH2_sp3 
107      1      2     0.0000    26.3600    40.9900    72.7300 #CH_sp3 
108      1      1     0.0000    27.1500    40.5800    71.4500 #CH3_sp3 
109      1      3     0.0000    24.8100    40.8800    72.6600 #CH2_sp3 
110      1      2     0.0000    24.2700    39.4300    72.3900 #CH_sp3 
111      1      1     0.0000    22.7500    39.7400    72.0500 #CH3_sp3 
112      1      3     0.0000    24.4400    38.4400    73.5200 #CH2_sp3 
113      1      2     0.0000    24.1000    37.0000    73.1800 #CH_sp3 
114      1      1     0.0000    22.6900    36.6400    73.6700 #CH3_sp3 
115      1      3     0.0000    25.2800    35.9500    73.5800 #CH2_sp3 
116      1      2     0.0000    26.4300    35.9100    72.5600 #CH_sp3 
117      1      1     0.0000    26.0700    35.0000    71.3700 #CH3_sp3 
118      1      3     0.0000    27.6200    35.3400    73.3600 #CH2_sp3 
119      1      2     0.0000    28.9000    35.0000    72.6800 #CH_sp3 
120      1      1     0.0000    29.8800    34.5800    73.8400 #CH3_sp3 
121      1      3     0.0000    29.3400    36.1000    71.7000 #CH2_sp3 
122      1      2     0.0000    30.6300    35.8400    70.8000 #CH_sp3 
123      1      1     0.0000    30.6800    37.0200    69.8400 #CH3_sp3 
124      1      3     0.0000    30.7800    34.3800    70.3500 #CH2_sp3 
125      1      2     0.0000    32.0000    34.2500    69.4600 #CH_sp3 
126      1      1     0.0000    31.4900    34.6300    68.0100 #CH3_sp3 
127      1      3     0.0000    32.5100    32.8100    69.5400 #CH2_sp3 
128      1      2     0.0000    33.8800    32.5700    69.0200 #CH_sp3 
129      1      1     0.0000    34.8900    33.5900    69.5700 #CH3_sp3 
130      1      3     0.0000    33.9700    32.4900    67.5200 #CH2_sp3 
131      1      2     0.0000    35.2600    32.0600    66.8100 #CH_sp3 
132      1      1     0.0000    34.7300    31.6400    65.4600 #CH3_sp3 
133      1      3     0.0000    36.0300    30.8300    67.2600 #CH2_sp3 
134      1      2     0.0000    37.0000    30.9200    68.4600 #CH_sp3 
135      1      1     0.0000    37.9400    32.1300    68.2900 #CH3_sp3 
136      1      3     0.0000    37.8700    29.6700    68.4600 #CH2_sp3 
137      1      2     0.0000    37.8300    28.7900    69.7500 #CH_sp3 
138      1      1     0.0000    38.9300    27.7400    69.6400 #CH3_sp3 
139      1      3     0.0000    36.4200    28.1400    69.7100 #CH2_sp3 
140      1      2     0.0000    35.9200    27.2900    70.8400 #CH_sp3 
141      1      1     0.0000    35.5400    28.1600    72.0300 #CH3_sp3 
142      1      3     0.0000    36.7100    26.0400    71.2800 #CH2_sp3 
143      1      2     0.0000    37.0700    24.9400    70.4000 #CH_sp3 
144      1      1     0.0000    35.7500    24.0400    70.1800 #CH3_sp3 
145      1      3     0.0000    38.0800    24.0200    71.0900 #CH2_sp3 
146      1      2     0.0000    39.5900    24.4100    70.7500 #CH_sp3 
147      1      1     0.0000    39.9300    23.9600    69.3300 #CH3_sp3 
148      1      3     0.0000    40.5900    23.7600    71.7400 #CH2_sp3 
149      1      2     0.0000    42.0200    24.4500    71.8100 #CH_sp3 
150      1      1     0.0000    42.9900    23.6000    72.6300 #CH3_sp3 
151      1      3     0.0000    42.0600    25.9300    72.1700 #CH2_sp3 
152      1      2     0.0000    43.3800    26.5800    71.7000 #CH_sp3 
153      1      1     0.0000    43.7800    27.4200    72.8600 #CH3_sp3 
154      1      3     0.0000    43.0300    27.5400    70.5600 #CH2_sp3 
155      1      2     0.0000    44.1200    28.3500    69.8000 #CH_sp3 
156      1      1     0.0000    43.2500    29.2000    68.7800 #CH3_sp3 
157      1      3     0.0000    45.3600    27.5700    69.1600 #CH2_sp3 
158      1      2     0.0000    46.6700    28.3200    68.9100 #CH_sp3 
159      1      1     0.0000    46.5200    29.5000    67.9900 #CH3_sp3 
160      1      3     0.0000    47.7200    27.2400    68.5900 #CH2_sp3 
161      1      2     0.0000    47.9300    26.6000    67.2100 #CH_sp3 
162      1      1     0.0000    48.9700    25.4900    67.3400 #CH3_sp3 
163      1      3     0.0000    48.6200    27.5900    66.2500 #CH2_sp3 
164      1      2     0.0000    48.8200    27.1900    64.8000 #CH_sp3 
165      1      1     0.0000    49.9700    28.1200    64.2400 #CH3_sp3 
166      1      3     0.0000    47.4500    27.0800    64.0000 #CH2_sp3 
167      1      2     0.0000    47.3200    25.7200    63.3000 #CH_sp3 
168      1      1     0.0000    48.2800    25.7800    62.0800 #CH3_sp3 
169      1      3     0.0000    45.8900    25.3500    62.8400 #CH2_sp3 
170      1      2     0.0000    44.7300    25.4200    63.8400 #CH_sp3 
171      1      1     0.0000    44.1000    26.7600    63.8700 #CH3_sp3 
172      1      3     0.0000    44.9300    24.9100    65.3400 #CH2_sp3 
173      1      2     0.0000    43.9400    23.8400    66.0100 #CH_sp3 
174      1      1     0.0000    42.6200    24.5800    66.0600 #CH3_sp3 
175      1      3     0.0000    44.5600    23.1600    67.2700 #CH2_sp3 
176      1      2     0.0000    44.1400    21.6100    67.3900 #CH_sp3 
177      1      1     0.0000    43.6000    21.5400    68.8600 #CH3_sp3 
178      1      3     0.0000    45.2600    20.6200    67.0000 #CH2_sp3 
179      1      2     0.0000    45.7000    20.5900    65.5600 #CH_sp3 
180      1      1     0.0000    44.5800    20.2600    64.5900 #CH3_sp3 
181      1      3     0.0000    46.7700    19.4700    65.4800 #CH2_sp3 
182      1      2     0.0000    47.2500    18.9600    64.0900 #CH_sp3 
183      1      1     0.0000    47.9900    17.5900    64.1200 #CH3_sp3 
184      1      3     0.0000    47.9800    20.1000    63.1200 #CH2_sp3 
185      1      2     0.0000    49.3400    20.8500    63.5300 #CH_sp3 
186      1      1     0.0000    49.2500    21.9500    64.6000 #CH3_sp3 
187      1      3     0.0000    49.8300    21.5400    62.2800 #CH2_sp3 
188      1      2     0.0000    50.4900    20.7400    61.2700 #CH_sp3 
189      1      1     0.0000    51.8500    20.2300    61.7300 #CH3_sp3 
190      1      3     0.0000    50.5200    21.3800    59.9700 #CH2_sp3 
191      1      2     0.0000    51.4100    22.4900    59.4800 #CH_sp3 
192      1      1     0.0000    51.2600    23.7900    60.2500 #CH3_sp3 
193      1      3     0.0000    51.2000    22.9000    57.9900 #CH2_sp3 
194      1      2     0.0000    51.7100    22.0000    56.8200 #CH_sp3 
195      1      1     0.0000    53.2500    21.8600    56.8300 #CH3_sp3 
196      1      3     0.0000    51.4300    22.7500    55.5000 #CH2_sp3 
197      1      2     0.0000    49.8300    22.8400    55.1500 #CH_sp3 
198      1      1     0.0000    49.1300    21.4900    55.4000 #CH3_sp3 
199      1      3     0.0000    49.4700    23.2100    53.6000 #CH2_sp3 
200      1      2     0.0000    50.0500    24.5100    53.1400 #CH_sp3 
201      1      1     0.0000    49.6200    25.7200    53.9300 #CH3_sp3 
202      1      3     0.0000    49.7700    24.7900    51.6500 #CH2_sp3 
203      1      2     0.0000    50.6900    25.8700    50.8900 #CH_sp3 
204      1      1     0.0000    52.2500    25.7000    51.1900 #CH3_sp3 
205      1      3     0.0000    50.3000    27.3300    50.8800 #CH2_sp3 
206      1      2     0.0000    48.7700    27.6300    50.5400 #CH_sp3 
207      1      1     0.0000    48.3800    27.2700    49.1800 #CH3_sp3 
208      1      3     0.0000    48.4000    29.1300    50.6500 #CH2_sp3 
209      1      2     0.0000    48.7200    29.9300    51.9400 #CH_sp3 
210      1      1     0.0000    47.7000    29.5100    52.9700 #CH3_sp3 
211      1      3     0.0000    48.4600    31.4000    51.5400 #CH2_sp3 
212      1      2     0.0000    48.5300    32.5500    52.5000 #CH_sp3 
213      1      1     0.0000    48.3800    33.9400    51.8200 #CH3_sp3 
214      1      3     0.0000    49.8500    32.5300    53.3800 #CH2_sp3 
215      1      2     0.0000    51.2500    32.9500    52.8300 #CH_sp3 
216      1      1     0.0000    52.2300    31.8800    53.1500 #CH3_sp3 
217      1      3     0.0000    51.8000    34.3600    53.4800 #CH2_sp3 
218      1      2     0.0000    53.1700    34.8900    53.0600 #CH_sp3 
219      1      1     0.0000    53.6700    36.0200    54.0000 #CH3_sp3 
220      1      3     0.0000    53.3800    35.4200    51.6500 #CH2_sp3 
221      1      2     0.0000    53.4800    34.4000    50.5000 #CH_sp3 
222      1      1     0.0000    54.5300    33.2500    50.7000 #CH3_sp3 
223      1      3     0.0000    53.6900    35.0900    49.1000 #CH2_sp3 
224      1      2     0.0000    53.4900    34.2200    47.8600 #CH_sp3 
225      1      1     0.0000    54.7700    34.3300    46.8900 #CH3_sp3 
226      1      3     0.0000    52.1200    34.5900    47.2300 #CH2_sp3 
227      1      2     0.0000    51.5600    33.6000    46.1500 #CH_sp3 
228      1      1     0.0000    50.2200    34.1900    45.4300 #CH3_sp3 
229      1      3     0.0000    51.3200    32.2300    46.7200 #CH2_sp3 
230      1      2     0.0000    50.5200    31.1800    45.9400 #CH_sp3 
231      1      1     0.0000    49.8000    30.2700    46.9500 #CH3_sp3 
232      1      3     0.0000    51.3900    30.4500    44.8100 #CH2_sp3 
233      1      2     0.0000    50.9700    29.0400    44.2600 #CH_sp3 
234      1      1     0.0000    52.1700    28.1000    44.2700 #CH3_sp3 
235      1      3     0.0000    50.5300    29.1700    42.7900 #CH2_sp3 
236      1      2     0.0000    49.1100    29.6900    42.3700 #CH_sp3 
237      1      1     0.0000    47.9500    28.9900    43.0500 #CH3_sp3 
238      1      3     0.0000    48.9100    29.9000    40.8700 #CH2_sp3 
239      1      2     0.0000    47.9600    31.1200    40.4900 #CH_sp3 
240      1      1     0.0000    47.4100    31.1000    39.0500 #CH3_sp3 
241      1      3     0.0000    48.5200    32.4800    40.9100 #CH2_sp3 
242      1      2     0.0000    47.5800    33.7000    40.5200 #CH_sp3 
243      1      1     0.0000    48.2400    35.0500    41.1000 #CH3_sp3 
244      1      3     0.0000    46.1400    33.3800    41.1900 #CH2_sp3 
245      1      2     0.0000    45.1800    34.5100    40.9300 #CH_sp3 
246      1      1     0.0000    44.9900    35.3100    42.2700 #CH3_sp3 
247      1      3     0.0000    43.8000    34.1400    40.1700 #CH2_sp3 
248      1      2     0.0000    42.7200    33.4500    41.0000 #CH_sp3 
249      1      1     0.0000    43.3200    32.0700    41.4400 #CH3_sp3 
250      1      3     0.0000    41.5100    33.1300    40.2100 #CH2_sp3 
251      1      2     0.0000    40.3100    34.1100    40.0400 #CH_sp3 
252      1      1     0.0000    40.7100    35.4900    39.5700 #CH3_sp3 
253      1      3     0.0000    39.6100    34.2500    41.3700 #CH2_sp3 
254      1      2     0.0000    38.2000    34.8800    41.3800 #CH_sp3 
255      1      1     0.0000    38.0700    36.1000    40.4300 #CH3_sp3 
256      1      3     0.0000    37.7100    35.2600    42.7800 #CH2_sp3 
257      1      2     0.0000    36.1700    34.9100    43.0100 #CH_sp3 
258      1      1     0.0000    35.7000    35.8100    44.1200 #CH3_sp3 
259      1      3     0.0000    35.8000    33.4000    43.3000 #CH2_sp3 
260      1      2     0.0000    36.4000    32.8700    44.6700 #CH_sp3 
261      1      1     0.0000    37.8700    32.2800    44.5200 #CH3_sp3 
262      1      3     0.0000    35.3200    32.1600    45.5100 #CH2_sp3 
263      1      2     0.0000    35.4700    31.1800    46.6700 #CH_sp3 
264      1      1     0.0000    35.9900    29.8900    46.0600 #CH3_sp3 
265      1      3     0.0000    34.0300    30.7700    47.1600 #CH2_sp3 
266      1      2     0.0000    33.0400    31.9000    47.5600 #CH_sp3 
267      1      1     0.0000    32.8700    31.8500    49.0700 #CH3_sp3 
268      1      3     0.0000    31.6600    31.8600    46.7100 #CH2_sp3 
269      1      2     0.0000    31.5600    32.0000    45.0900 #CH_sp3 
270      1      1     0.0000    30.7700    33.2400    44.5600 #CH3_sp3 
271      1      3     0.0000    30.9700    30.6700    44.4500 #CH2_sp3 
272      1      2     0.0000    30.9200    30.6100    42.8500 #CH_sp3 
273      1      1     0.0000    30.6400    29.2200    42.4100 #CH3_sp3 
274      1      3     0.0000    32.2800    31.0900    42.2700 #CH2_sp3 
275      1      2     0.0000    32.4500    30.9300    40.6800 #CH_sp3 
276      1      1     0.0000    33.9400    31.1000    40.4700 #CH3_sp3 
277      1      3     0.0000    31.4800    31.8200    39.9200 #CH2_sp3 
278      1      2     0.0000    31.7300    31.8300    38.3800 #CH_sp3 
279      1      1     0.0000    30.4900    32.5200    37.7900 #CH3_sp3 
280      1      3     0.0000    32.1200    30.4400    37.8000 #CH2_sp3 
281      1      2     0.0000    32.0900    30.2300    36.2800 #CH_sp3 
282      1      1     0.0000    32.6900    28.7700    36.1700 #CH3_sp3 
283      1      3     0.0000    32.8600    31.4200    35.3400 #CH2_sp3 
284      1      2     0.0000    33.3900    31.0300    33.9600 #CH_sp3 
285      1      1     0.0000    34.6500    30.2600    33.7000 #CH3_sp3 
286      1      3     0.0000    33.3600    32.2400    33.0100 #CH2_sp3 
287      1      2     0.0000    32.0300    32.9000    32.5500 #CH_sp3 
288      1      1     0.0000    30.8400    31.9500    32.1900 #CH3_sp3 
289      1      3     0.0000    32.3400    33.8500    31.2300 #CH2_sp3 
290      1      2     0.0000    31.3200    35.0300    30.8600 #CH_sp3 
291      1      1     0.0000    32.0300    35.8800    29.7900 #CH3_sp3 
292      1      3     0.0000    30.8400    36.0300    31.9800 #CH2_sp3 
293      1      2     0.0000    29.5700    36.7900    31.7700 #CH_sp3 
294      1      1     0.0000    29.6300    38.1300    32.4200 #CH3_sp3 
295      1      3     0.0000    28.3900    35.9200    32.3000 #CH2_sp3 
296      1      2     0.0000    26.8800    36.2600    32.1900 #CH_sp3 
297      1      1     0.0000    26.4500    37.6600    32.5600 #CH3_sp3 
298      1      3     0.0000    26.1800    35.3500    33.2400 #CH2_sp3 
299      1      2     0.0000    26.6500    33.7700    33.3200 #CH_sp3 
300      1      1     0.0000    26.3100    33.1100    31.9500 #CH3_sp3 
301      1      3     0.0000    25.9900    33.0100    34.5400 #CH2_sp3 
302      1      2     0.0000    26.1400    33.5000    35.9300 #CH_sp3 
303      1      1     0.0000    27.5900    33.6300    36.3700 #CH3_sp3 
304      1      3     0.0000    25.6400    32.3200    36.8200 #CH2_sp3 
305      1      2     0.0000    24.2000    31.9900    36.7600 #CH_sp3 
306      1      1     0.0000    23.2600    33.1600    37.2100 #CH3_sp3 
307      1      1     0.0000    23.9000    30.7500    37.5300 #CH3_sp3 
308      2      1     0.0000    48.1500    59.5000    46.6300 #CH3_sp3 
309      2      2     0.0000    48.0600    58.6900    47.9200 #CH_sp3 
310      2      1     0.0000    47.7200    57.2400    47.6600 #CH3_sp3 
311      2      3     0.0000    47.1200    59.5500    48.8600 #CH2_sp3 
312      2      2     0.0000    46.4300    58.9800    50.1600 #CH_sp3 
313      2      1     0.0000    45.8100    57.6600    49.7600 #CH3_sp3 
314      2      3     0.0000    45.5400    60.1500    50.7100 #CH2_sp3 
315      2      2     0.0000    44.3500    60.7500    49.9000 #CH_sp3 
316      2      1     0.0000    43.7800    61.7200    50.8900 #CH3_sp3 
317      2      3     0.0000    43.4100    59.6600    49.3200 #CH2_sp3 
318      2      2     0.0000    42.2000    60.2300    48.6000 #CH_sp3 
319      2      1     0.0000    41.0400    59.1700    48.5100 #CH3_sp3 
320      2      3     0.0000    42.7500    60.8900    47.2000 #CH2_sp3 
321      2      2     0.0000    42.4800    62.3900    46.7600 #CH_sp3 
322      2      1     0.0000    42.8500    63.4200    47.7900 #CH3_sp3 
323      2      3     0.0000    40.9700    62.5900    46.5800 #CH2_sp3 
324      2      2     0.0000    40.4000    61.5800    45.4700 #CH_sp3 
325      2      1     0.0000    41.4300    61.4400    44.2400 #CH3_sp3 
326      2      3     0.0000    39.1300    62.1300    44.9800 #CH2_sp3 
327      2      2     0.0000    38.3600    61.4500    43.9600 #CH_sp3 
328      2      1     0.0000    37.3600    62.4800    43.4200 #CH3_sp3 
329      2      3     0.0000    37.5300    60.2300    44.4400 #CH2_sp3 
330      2      2     0.0000    37.4600    59.1400    43.3600 #CH_sp3 
331      2      1     0.0000    36.9800    59.7000    42.0700 #CH3_sp3 
332      2      3     0.0000    36.7700    57.8800    43.9200 #CH2_sp3 
333      2      2     0.0000    36.8000    56.6400    43.0500 #CH_sp3 
334      2      1     0.0000    35.4600    56.3000    42.4000 #CH3_sp3 
335      2      3     0.0000    37.1600    55.4000    43.8500 #CH2_sp3 
336      2      2     0.0000    38.4300    55.3800    44.7900 #CH_sp3 
337      2      1     0.0000    39.6200    56.2500    44.2400 #CH3_sp3 
338      2      3     0.0000    38.8700    53.9100    45.0400 #CH2_sp3 
339      2      2     0.0000    39.5100    53.5700    46.3800 #CH_sp3 
340      2      1     0.0000    41.0100    53.7400    46.1200 #CH3_sp3 
341      2      3     0.0000    39.0600    52.1300    46.7400 #CH2_sp3 
342      2      2     0.0000    39.4200    51.8000    48.2200 #CH_sp3 
343      2      1     0.0000    40.8400    51.2800    48.4100 #CH3_sp3 
344      2      3     0.0000    38.3300    50.8900    48.7900 #CH2_sp3 
345      2      2     0.0000    36.8100    51.2600    48.7500 #CH_sp3 
346      2      1     0.0000    36.5700    52.5800    49.5400 #CH3_sp3 
347      2      3     0.0000    35.9700    50.0400    49.2700 #CH2_sp3 
348      2      2     0.0000    35.9900    48.8800    48.4000 #CH_sp3 
349      2      1     0.0000    34.5700    48.7200    47.9100 #CH3_sp3 
350      2      3     0.0000    36.4600    47.6500    49.1200 #CH2_sp3 
351      2      2     0.0000    36.6100    46.2900    48.2000 #CH_sp3 
352      2      1     0.0000    36.1900    44.9700    48.8600 #CH3_sp3 
353      2      3     0.0000    38.0900    46.2500    47.6700 #CH2_sp3 
354      2      2     0.0000    38.3600    45.4000    46.3300 #CH_sp3 
355      2      1     0.0000    39.9000    45.2300    46.3500 #CH3_sp3 
356      2      3     0.0000    37.8500    46.0000    44.9800 #CH2_sp3 
357      2      2     0.0000    38.0400    45.1200    43.7800 #CH_sp3 
358      2      1     0.0000    38.3100    46.1100    42.5600 #CH3_sp3 
359      2      3     0.0000    36.8700    44.1700    43.6000 #CH2_sp3 
360      2      2     0.0000    36.9100    42.9300    42.6200 #CH_sp3 
361      2      1     0.0000    35.7700    41.9800    42.7400 #CH3_sp3 
362      2      3     0.0000    38.3800    42.2600    42.3700 #CH2_sp3 
363      2      2     0.0000    38.4800    41.1500    41.2000 #CH_sp3 
364      2      1     0.0000    38.4900    39.7800    41.9700 #CH3_sp3 
365      2      3     0.0000    39.8800    41.2100    40.4500 #CH2_sp3 
366      2      2     0.0000    40.1100    40.2800    39.2400 #CH_sp3 
367      2      1     0.0000    41.5700    39.8600    38.8400 #CH3_sp3 
368      2      3     0.0000    39.1900    41.0900    38.1400 #CH2_sp3 
369      2      2     0.0000    39.0200    40.8100    36.6300 #CH_sp3 
370      2      1     0.0000    38.3500    42.0100    35.7900 #CH3_sp3 
371      2      3     0.0000    38.1700    39.6100    36.2600 #CH2_sp3 
372      2      2     0.0000    38.8800    38.4900    35.3900 #CH_sp3 
373      2      1     0.0000    40.1100    37.9700    36.0700 #CH3_sp3 
374      2      3     0.0000    39.1700    39.0300    33.9600 #CH2_sp3 
375      2      2     0.0000    39.5400    38.1500    32.8400 #CH_sp3 
376      2      1     0.0000    39.6500    39.0000    31.4700 #CH3_sp3 
377      2      3     0.0000    39.0300    36.7400    32.5500 #CH2_sp3 
378      2      2     0.0000    37.6200    36.7500    31.9100 #CH_sp3 
379      2      1     0.0000    36.5800    37.6400    32.6000 #CH3_sp3 
380      2      3     0.0000    37.0600    35.3100    31.7400 #CH2_sp3 
381      2      2     0.0000    37.7600    34.2600    30.8900 #CH_sp3 
382      2      1     0.0000    37.8600    34.7000    29.4300 #CH3_sp3 
383      2      3     0.0000    36.9500    32.9800    31.1300 #CH2_sp3 
384      2      2     0.0000    37.1800    31.7400    30.1700 #CH_sp3 
385      2      1     0.0000    35.9100    30.8900    30.1500 #CH3_sp3 
386      2      3     0.0000    38.4200    30.9800    30.6700 #CH2_sp3 
387      2      2     0.0000    39.0700    29.8400    29.6700 #CH_sp3 
388      2      1     0.0000    39.3500    30.3600    28.2600 #CH3_sp3 
389      2      3     0.0000    38.1300    28.4700    29.7200 #CH2_sp3 
390      2      2     0.0000    38.6700    27.6900    30.9700 #CH_sp3 
391      2      1     0.0000    40.0300    27.0400    30.7100 #CH3_sp3 
392      2      3     0.0000    37.4700    26.8700    31.3800 #CH2_sp3 
393      2      2     0.0000    37.2900    26.1800    32.7500 #CH_sp3 
394      2      1     0.0000    36.1000    25.2000    32.5400 #CH3_sp3 
395      2      3     0.0000    37.2700    27.1100    33.9300 #CH2_sp3 
396      2      2     0.0000    37.6000    26.6400    35.3100 #CH_sp3 
397      2      1     0.0000    36.5100    25.6600    35.8200 #CH3_sp3 
398      2      3     0.0000    37.7600    27.8700    36.3000 #CH2_sp3 
399      2      2     0.0000    39.1900    28.3200    36.3100 #CH_sp3 
400      2      1     0.0000    40.1500    27.4900    37.1100 #CH3_sp3 
401      2      3     0.0000    39.4100    29.8000    36.7800 #CH2_sp3 
402      2      2     0.0000    38.5900    30.8200    35.9800 #CH_sp3 
403      2      1     0.0000    38.8800    30.8600    34.4500 #CH3_sp3 
404      2      3     0.0000    38.9900    32.2200    36.6500 #CH2_sp3 
405      2      2     0.0000    38.3500    33.4300    35.9200 #CH_sp3 
406      2      1     0.0000    38.7800    34.8000    36.5600 #CH3_sp3 
407      2      3     0.0000    36.8500    33.4300    35.7300 #CH2_sp3 
408      2      2     0.0000    35.9800    33.8400    36.9900 #CH_sp3 
409      2      1     0.0000    35.7800    32.4800    37.7000 #CH3_sp3 
410      2      3     0.0000    34.7500    34.5700    36.3300 #CH2_sp3 